V -t * -v 1.0a5 -a 0
A -t * -n 1 -p 0 -o 0x7fffffff -c 30 -a 1
A -t * -h 1 -m 1073741823 -s 0
c -t * -i 1 -n Blue
c -t * -i 2 -n Red
n -t * -a 8 -s 8 -S UP -v circle -c black -i black
n -t * -a 4 -s 4 -S UP -v circle -c black -i black
n -t * -a 0 -s 0 -S UP -v circle -c black -i black
n -t * -a 10 -s 10 -S UP -v circle -c black -i black
n -t * -a 9 -s 9 -S UP -v circle -c black -i black
n -t * -a 5 -s 5 -S UP -v circle -c black -i black
n -t * -a 1 -s 1 -S UP -v circle -c black -i black
n -t * -a 6 -s 6 -S UP -v circle -c black -i black
n -t * -a 2 -s 2 -S UP -v circle -c black -i black
n -t * -a 7 -s 7 -S UP -v circle -c black -i black
n -t * -a 3 -s 3 -S UP -v circle -c black -i black
l -t * -s 3 -d 4 -S UP -r 128000 -D 0.01 -c black -o right
l -t * -s 0 -d 3 -S UP -r 128000 -D 0.01 -c black -o right
l -t * -s 3 -d 1 -S UP -r 128000 -D 0.01 -c black -o up
l -t * -s 3 -d 2 -S UP -r 128000 -D 0.01 -c black -o down
l -t * -s 4 -d 5 -S UP -r 128000 -D 0.01 -c black -o right-up
l -t * -s 4 -d 7 -S UP -r 128000 -D 0.01 -c black -o right-down
l -t * -s 5 -d 8 -S UP -r 128000 -D 0.01 -c black -o right-up
l -t * -s 5 -d 6 -S UP -r 128000 -D 0.01 -c black -o right
l -t * -s 6 -d 9 -S UP -r 128000 -D 0.01 -c black -o right
l -t * -s 7 -d 10 -S UP -r 128000 -D 0.01 -c black -o right
l -t * -s 6 -d 10 -S UP -r 128000 -D 0.01 -c black -o down
q -t * -s 3 -d 4 -a 0.5
q -t * -s 4 -d 3 -a 0.5
+ -t 0.221623 -s 1 -d 3 -p udp -e 758 -c 2 -i 0 -a 2 -x {1.0 9.0 0 ------- null}
- -t 0.221623 -s 1 -d 3 -p udp -e 758 -c 2 -i 0 -a 2 -x {1.0 9.0 0 ------- null}
h -t 0.221623 -s 1 -d 3 -p udp -e 758 -c 2 -i 0 -a 2 -x {1.0 9.0 -1 ------- null}
+ -t 0.226529 -s 0 -d 3 -p udp -e 588 -c 1 -i 1 -a 1 -x {0.0 8.0 0 ------- null}
- -t 0.226529 -s 0 -d 3 -p udp -e 588 -c 1 -i 1 -a 1 -x {0.0 8.0 0 ------- null}
h -t 0.226529 -s 0 -d 3 -p udp -e 588 -c 1 -i 1 -a 1 -x {0.0 8.0 -1 ------- null}
r -t 0.273279 -s 0 -d 3 -p udp -e 588 -c 1 -i 1 -a 1 -x {0.0 8.0 0 ------- null}
+ -t 0.273279 -s 3 -d 4 -p udp -e 588 -c 1 -i 1 -a 1 -x {0.0 8.0 0 ------- null}
- -t 0.273279 -s 3 -d 4 -p udp -e 588 -c 1 -i 1 -a 1 -x {0.0 8.0 0 ------- null}
h -t 0.273279 -s 3 -d 4 -p udp -e 588 -c 1 -i 1 -a 1 -x {0.0 8.0 -1 ------- null}
+ -t 0.275249 -s 1 -d 3 -p udp -e 625 -c 2 -i 2 -a 2 -x {1.0 9.0 1 ------- null}
- -t 0.275249 -s 1 -d 3 -p udp -e 625 -c 2 -i 2 -a 2 -x {1.0 9.0 1 ------- null}
h -t 0.275249 -s 1 -d 3 -p udp -e 625 -c 2 -i 2 -a 2 -x {1.0 9.0 -1 ------- null}
r -t 0.278998 -s 1 -d 3 -p udp -e 758 -c 2 -i 0 -a 2 -x {1.0 9.0 0 ------- null}
+ -t 0.278998 -s 3 -d 4 -p udp -e 758 -c 2 -i 0 -a 2 -x {1.0 9.0 0 ------- null}
- -t 0.310029 -s 3 -d 4 -p udp -e 758 -c 2 -i 0 -a 2 -x {1.0 9.0 0 ------- null}
h -t 0.310029 -s 3 -d 4 -p udp -e 758 -c 2 -i 0 -a 2 -x {1.0 9.0 -1 ------- null}
r -t 0.320029 -s 3 -d 4 -p udp -e 588 -c 1 -i 1 -a 1 -x {0.0 8.0 0 ------- null}
+ -t 0.320029 -s 4 -d 5 -p udp -e 588 -c 1 -i 1 -a 1 -x {0.0 8.0 0 ------- null}
- -t 0.320029 -s 4 -d 5 -p udp -e 588 -c 1 -i 1 -a 1 -x {0.0 8.0 0 ------- null}
h -t 0.320029 -s 4 -d 5 -p udp -e 588 -c 1 -i 1 -a 1 -x {0.0 8.0 -1 ------- null}
r -t 0.3243115 -s 1 -d 3 -p udp -e 625 -c 2 -i 2 -a 2 -x {1.0 9.0 1 ------- null}
+ -t 0.3243115 -s 3 -d 4 -p udp -e 625 -c 2 -i 2 -a 2 -x {1.0 9.0 1 ------- null}
- -t 0.357404 -s 3 -d 4 -p udp -e 625 -c 2 -i 2 -a 2 -x {1.0 9.0 1 ------- null}
h -t 0.357404 -s 3 -d 4 -p udp -e 625 -c 2 -i 2 -a 2 -x {1.0 9.0 -1 ------- null}
+ -t 0.361315 -s 0 -d 3 -p udp -e 760 -c 1 -i 3 -a 1 -x {0.0 8.0 1 ------- null}
- -t 0.361315 -s 0 -d 3 -p udp -e 760 -c 1 -i 3 -a 1 -x {0.0 8.0 1 ------- null}
h -t 0.361315 -s 0 -d 3 -p udp -e 760 -c 1 -i 3 -a 1 -x {0.0 8.0 -1 ------- null}
r -t 0.366779 -s 4 -d 5 -p udp -e 588 -c 1 -i 1 -a 1 -x {0.0 8.0 0 ------- null}
+ -t 0.366779 -s 5 -d 8 -p udp -e 588 -c 1 -i 1 -a 1 -x {0.0 8.0 0 ------- null}
- -t 0.366779 -s 5 -d 8 -p udp -e 588 -c 1 -i 1 -a 1 -x {0.0 8.0 0 ------- null}
h -t 0.366779 -s 5 -d 8 -p udp -e 588 -c 1 -i 1 -a 1 -x {0.0 8.0 -1 ------- null}
r -t 0.367404 -s 3 -d 4 -p udp -e 758 -c 2 -i 0 -a 2 -x {1.0 9.0 0 ------- null}
+ -t 0.367404 -s 4 -d 5 -p udp -e 758 -c 2 -i 0 -a 2 -x {1.0 9.0 0 ------- null}
- -t 0.367404 -s 4 -d 5 -p udp -e 758 -c 2 -i 0 -a 2 -x {1.0 9.0 0 ------- null}
h -t 0.367404 -s 4 -d 5 -p udp -e 758 -c 2 -i 0 -a 2 -x {1.0 9.0 -1 ------- null}
r -t 0.4064665 -s 3 -d 4 -p udp -e 625 -c 2 -i 2 -a 2 -x {1.0 9.0 1 ------- null}
+ -t 0.4064665 -s 4 -d 5 -p udp -e 625 -c 2 -i 2 -a 2 -x {1.0 9.0 1 ------- null}
r -t 0.413529 -s 5 -d 8 -p udp -e 588 -c 1 -i 1 -a 1 -x {0.0 8.0 0 ------- null}
+ -t 0.413767 -s 1 -d 3 -p udp -e 845 -c 2 -i 4 -a 2 -x {1.0 9.0 2 ------- null}
- -t 0.413767 -s 1 -d 3 -p udp -e 845 -c 2 -i 4 -a 2 -x {1.0 9.0 2 ------- null}
h -t 0.413767 -s 1 -d 3 -p udp -e 845 -c 2 -i 4 -a 2 -x {1.0 9.0 -1 ------- null}
- -t 0.414779 -s 4 -d 5 -p udp -e 625 -c 2 -i 2 -a 2 -x {1.0 9.0 1 ------- null}
h -t 0.414779 -s 4 -d 5 -p udp -e 625 -c 2 -i 2 -a 2 -x {1.0 9.0 -1 ------- null}
r -t 0.418815 -s 0 -d 3 -p udp -e 760 -c 1 -i 3 -a 1 -x {0.0 8.0 1 ------- null}
+ -t 0.418815 -s 3 -d 4 -p udp -e 760 -c 1 -i 3 -a 1 -x {0.0 8.0 1 ------- null}
- -t 0.418815 -s 3 -d 4 -p udp -e 760 -c 1 -i 3 -a 1 -x {0.0 8.0 1 ------- null}
h -t 0.418815 -s 3 -d 4 -p udp -e 760 -c 1 -i 3 -a 1 -x {0.0 8.0 -1 ------- null}
+ -t 0.419941 -s 0 -d 3 -p udp -e 652 -c 1 -i 5 -a 1 -x {0.0 8.0 2 ------- null}
- -t 0.419941 -s 0 -d 3 -p udp -e 652 -c 1 -i 5 -a 1 -x {0.0 8.0 2 ------- null}
h -t 0.419941 -s 0 -d 3 -p udp -e 652 -c 1 -i 5 -a 1 -x {0.0 8.0 -1 ------- null}
r -t 0.424779 -s 4 -d 5 -p udp -e 758 -c 2 -i 0 -a 2 -x {1.0 9.0 0 ------- null}
+ -t 0.424779 -s 5 -d 6 -p udp -e 758 -c 2 -i 0 -a 2 -x {1.0 9.0 0 ------- null}
- -t 0.424779 -s 5 -d 6 -p udp -e 758 -c 2 -i 0 -a 2 -x {1.0 9.0 0 ------- null}
h -t 0.424779 -s 5 -d 6 -p udp -e 758 -c 2 -i 0 -a 2 -x {1.0 9.0 -1 ------- null}
r -t 0.4638415 -s 4 -d 5 -p udp -e 625 -c 2 -i 2 -a 2 -x {1.0 9.0 1 ------- null}
+ -t 0.4638415 -s 5 -d 6 -p udp -e 625 -c 2 -i 2 -a 2 -x {1.0 9.0 1 ------- null}
r -t 0.470691 -s 0 -d 3 -p udp -e 652 -c 1 -i 5 -a 1 -x {0.0 8.0 2 ------- null}
+ -t 0.470691 -s 3 -d 4 -p udp -e 652 -c 1 -i 5 -a 1 -x {0.0 8.0 2 ------- null}
- -t 0.470691 -s 3 -d 4 -p udp -e 652 -c 1 -i 5 -a 1 -x {0.0 8.0 2 ------- null}
h -t 0.470691 -s 3 -d 4 -p udp -e 652 -c 1 -i 5 -a 1 -x {0.0 8.0 -1 ------- null}
- -t 0.472154 -s 5 -d 6 -p udp -e 625 -c 2 -i 2 -a 2 -x {1.0 9.0 1 ------- null}
h -t 0.472154 -s 5 -d 6 -p udp -e 625 -c 2 -i 2 -a 2 -x {1.0 9.0 -1 ------- null}
r -t 0.476315 -s 3 -d 4 -p udp -e 760 -c 1 -i 3 -a 1 -x {0.0 8.0 1 ------- null}
+ -t 0.476315 -s 4 -d 5 -p udp -e 760 -c 1 -i 3 -a 1 -x {0.0 8.0 1 ------- null}
- -t 0.476315 -s 4 -d 5 -p udp -e 760 -c 1 -i 3 -a 1 -x {0.0 8.0 1 ------- null}
h -t 0.476315 -s 4 -d 5 -p udp -e 760 -c 1 -i 3 -a 1 -x {0.0 8.0 -1 ------- null}
r -t 0.4765795 -s 1 -d 3 -p udp -e 845 -c 2 -i 4 -a 2 -x {1.0 9.0 2 ------- null}
+ -t 0.4765795 -s 3 -d 4 -p udp -e 845 -c 2 -i 4 -a 2 -x {1.0 9.0 2 ------- null}
r -t 0.482154 -s 5 -d 6 -p udp -e 758 -c 2 -i 0 -a 2 -x {1.0 9.0 0 ------- null}
+ -t 0.482154 -s 6 -d 9 -p udp -e 758 -c 2 -i 0 -a 2 -x {1.0 9.0 0 ------- null}
- -t 0.482154 -s 6 -d 9 -p udp -e 758 -c 2 -i 0 -a 2 -x {1.0 9.0 0 ------- null}
h -t 0.482154 -s 6 -d 9 -p udp -e 758 -c 2 -i 0 -a 2 -x {1.0 9.0 -1 ------- null}
- -t 0.511441 -s 3 -d 4 -p udp -e 845 -c 2 -i 4 -a 2 -x {1.0 9.0 2 ------- null}
h -t 0.511441 -s 3 -d 4 -p udp -e 845 -c 2 -i 4 -a 2 -x {1.0 9.0 -1 ------- null}
r -t 0.5212165 -s 5 -d 6 -p udp -e 625 -c 2 -i 2 -a 2 -x {1.0 9.0 1 ------- null}
+ -t 0.5212165 -s 6 -d 9 -p udp -e 625 -c 2 -i 2 -a 2 -x {1.0 9.0 1 ------- null}
r -t 0.521441 -s 3 -d 4 -p udp -e 652 -c 1 -i 5 -a 1 -x {0.0 8.0 2 ------- null}
+ -t 0.521441 -s 4 -d 5 -p udp -e 652 -c 1 -i 5 -a 1 -x {0.0 8.0 2 ------- null}
- -t 0.523815 -s 4 -d 5 -p udp -e 652 -c 1 -i 5 -a 1 -x {0.0 8.0 2 ------- null}
h -t 0.523815 -s 4 -d 5 -p udp -e 652 -c 1 -i 5 -a 1 -x {0.0 8.0 -1 ------- null}
- -t 0.529529 -s 6 -d 9 -p udp -e 625 -c 2 -i 2 -a 2 -x {1.0 9.0 1 ------- null}
h -t 0.529529 -s 6 -d 9 -p udp -e 625 -c 2 -i 2 -a 2 -x {1.0 9.0 -1 ------- null}
r -t 0.533815 -s 4 -d 5 -p udp -e 760 -c 1 -i 3 -a 1 -x {0.0 8.0 1 ------- null}
+ -t 0.533815 -s 5 -d 8 -p udp -e 760 -c 1 -i 3 -a 1 -x {0.0 8.0 1 ------- null}
- -t 0.533815 -s 5 -d 8 -p udp -e 760 -c 1 -i 3 -a 1 -x {0.0 8.0 1 ------- null}
h -t 0.533815 -s 5 -d 8 -p udp -e 760 -c 1 -i 3 -a 1 -x {0.0 8.0 -1 ------- null}
+ -t 0.537102 -s 0 -d 3 -p udp -e 778 -c 1 -i 6 -a 1 -x {0.0 8.0 3 ------- null}
- -t 0.537102 -s 0 -d 3 -p udp -e 778 -c 1 -i 6 -a 1 -x {0.0 8.0 3 ------- null}
h -t 0.537102 -s 0 -d 3 -p udp -e 778 -c 1 -i 6 -a 1 -x {0.0 8.0 -1 ------- null}
r -t 0.539529 -s 6 -d 9 -p udp -e 758 -c 2 -i 0 -a 2 -x {1.0 9.0 0 ------- null}
+ -t 0.552919 -s 1 -d 3 -p udp -e 934 -c 2 -i 7 -a 2 -x {1.0 9.0 3 ------- null}
- -t 0.552919 -s 1 -d 3 -p udp -e 934 -c 2 -i 7 -a 2 -x {1.0 9.0 3 ------- null}
h -t 0.552919 -s 1 -d 3 -p udp -e 934 -c 2 -i 7 -a 2 -x {1.0 9.0 -1 ------- null}
r -t 0.5742535 -s 3 -d 4 -p udp -e 845 -c 2 -i 4 -a 2 -x {1.0 9.0 2 ------- null}
+ -t 0.5742535 -s 4 -d 5 -p udp -e 845 -c 2 -i 4 -a 2 -x {1.0 9.0 2 ------- null}
- -t 0.5742535 -s 4 -d 5 -p udp -e 845 -c 2 -i 4 -a 2 -x {1.0 9.0 2 ------- null}
h -t 0.5742535 -s 4 -d 5 -p udp -e 845 -c 2 -i 4 -a 2 -x {1.0 9.0 -1 ------- null}
r -t 0.574565 -s 4 -d 5 -p udp -e 652 -c 1 -i 5 -a 1 -x {0.0 8.0 2 ------- null}
+ -t 0.574565 -s 5 -d 8 -p udp -e 652 -c 1 -i 5 -a 1 -x {0.0 8.0 2 ------- null}
r -t 0.5785915 -s 6 -d 9 -p udp -e 625 -c 2 -i 2 -a 2 -x {1.0 9.0 1 ------- null}
- -t 0.581315 -s 5 -d 8 -p udp -e 652 -c 1 -i 5 -a 1 -x {0.0 8.0 2 ------- null}
h -t 0.581315 -s 5 -d 8 -p udp -e 652 -c 1 -i 5 -a 1 -x {0.0 8.0 -1 ------- null}
r -t 0.591315 -s 5 -d 8 -p udp -e 760 -c 1 -i 3 -a 1 -x {0.0 8.0 1 ------- null}
r -t 0.595727 -s 0 -d 3 -p udp -e 778 -c 1 -i 6 -a 1 -x {0.0 8.0 3 ------- null}
+ -t 0.595727 -s 3 -d 4 -p udp -e 778 -c 1 -i 6 -a 1 -x {0.0 8.0 3 ------- null}
- -t 0.595727 -s 3 -d 4 -p udp -e 778 -c 1 -i 6 -a 1 -x {0.0 8.0 3 ------- null}
h -t 0.595727 -s 3 -d 4 -p udp -e 778 -c 1 -i 6 -a 1 -x {0.0 8.0 -1 ------- null}
+ -t 0.60365 -s 1 -d 3 -p udp -e 634 -c 2 -i 8 -a 2 -x {1.0 9.0 4 ------- null}
- -t 0.611294 -s 1 -d 3 -p udp -e 634 -c 2 -i 8 -a 2 -x {1.0 9.0 4 ------- null}
h -t 0.611294 -s 1 -d 3 -p udp -e 634 -c 2 -i 8 -a 2 -x {1.0 9.0 -1 ------- null}
r -t 0.621294 -s 1 -d 3 -p udp -e 934 -c 2 -i 7 -a 2 -x {1.0 9.0 3 ------- null}
+ -t 0.621294 -s 3 -d 4 -p udp -e 934 -c 2 -i 7 -a 2 -x {1.0 9.0 3 ------- null}
r -t 0.632065 -s 5 -d 8 -p udp -e 652 -c 1 -i 5 -a 1 -x {0.0 8.0 2 ------- null}
r -t 0.637066 -s 4 -d 5 -p udp -e 845 -c 2 -i 4 -a 2 -x {1.0 9.0 2 ------- null}
+ -t 0.637066 -s 5 -d 6 -p udp -e 845 -c 2 -i 4 -a 2 -x {1.0 9.0 2 ------- null}
- -t 0.637066 -s 5 -d 6 -p udp -e 845 -c 2 -i 4 -a 2 -x {1.0 9.0 2 ------- null}
h -t 0.637066 -s 5 -d 6 -p udp -e 845 -c 2 -i 4 -a 2 -x {1.0 9.0 -1 ------- null}
- -t 0.644352 -s 3 -d 4 -p udp -e 934 -c 2 -i 7 -a 2 -x {1.0 9.0 3 ------- null}
h -t 0.644352 -s 3 -d 4 -p udp -e 934 -c 2 -i 7 -a 2 -x {1.0 9.0 -1 ------- null}
r -t 0.654352 -s 3 -d 4 -p udp -e 778 -c 1 -i 6 -a 1 -x {0.0 8.0 3 ------- null}
+ -t 0.654352 -s 4 -d 5 -p udp -e 778 -c 1 -i 6 -a 1 -x {0.0 8.0 3 ------- null}
- -t 0.654352 -s 4 -d 5 -p udp -e 778 -c 1 -i 6 -a 1 -x {0.0 8.0 3 ------- null}
h -t 0.654352 -s 4 -d 5 -p udp -e 778 -c 1 -i 6 -a 1 -x {0.0 8.0 -1 ------- null}
r -t 0.660919 -s 1 -d 3 -p udp -e 634 -c 2 -i 8 -a 2 -x {1.0 9.0 4 ------- null}
+ -t 0.660919 -s 3 -d 4 -p udp -e 634 -c 2 -i 8 -a 2 -x {1.0 9.0 4 ------- null}
+ -t 0.677272 -s 0 -d 3 -p udp -e 736 -c 1 -i 9 -a 1 -x {0.0 8.0 4 ------- null}
- -t 0.677272 -s 0 -d 3 -p udp -e 736 -c 1 -i 9 -a 1 -x {0.0 8.0 4 ------- null}
h -t 0.677272 -s 0 -d 3 -p udp -e 736 -c 1 -i 9 -a 1 -x {0.0 8.0 -1 ------- null}
+ -t 0.677914 -s 1 -d 3 -p udp -e 622 -c 2 -i 10 -a 2 -x {1.0 9.0 5 ------- null}
- -t 0.677914 -s 1 -d 3 -p udp -e 622 -c 2 -i 10 -a 2 -x {1.0 9.0 5 ------- null}
h -t 0.677914 -s 1 -d 3 -p udp -e 622 -c 2 -i 10 -a 2 -x {1.0 9.0 -1 ------- null}
r -t 0.6998785 -s 5 -d 6 -p udp -e 845 -c 2 -i 4 -a 2 -x {1.0 9.0 2 ------- null}
+ -t 0.6998785 -s 6 -d 9 -p udp -e 845 -c 2 -i 4 -a 2 -x {1.0 9.0 2 ------- null}
- -t 0.6998785 -s 6 -d 9 -p udp -e 845 -c 2 -i 4 -a 2 -x {1.0 9.0 2 ------- null}
h -t 0.6998785 -s 6 -d 9 -p udp -e 845 -c 2 -i 4 -a 2 -x {1.0 9.0 -1 ------- null}
- -t 0.702727 -s 3 -d 4 -p udp -e 634 -c 2 -i 8 -a 2 -x {1.0 9.0 4 ------- null}
h -t 0.702727 -s 3 -d 4 -p udp -e 634 -c 2 -i 8 -a 2 -x {1.0 9.0 -1 ------- null}
r -t 0.712727 -s 3 -d 4 -p udp -e 934 -c 2 -i 7 -a 2 -x {1.0 9.0 3 ------- null}
+ -t 0.712727 -s 4 -d 5 -p udp -e 934 -c 2 -i 7 -a 2 -x {1.0 9.0 3 ------- null}
- -t 0.712727 -s 4 -d 5 -p udp -e 934 -c 2 -i 7 -a 2 -x {1.0 9.0 3 ------- null}
h -t 0.712727 -s 4 -d 5 -p udp -e 934 -c 2 -i 7 -a 2 -x {1.0 9.0 -1 ------- null}
r -t 0.712977 -s 4 -d 5 -p udp -e 778 -c 1 -i 6 -a 1 -x {0.0 8.0 3 ------- null}
+ -t 0.712977 -s 5 -d 8 -p udp -e 778 -c 1 -i 6 -a 1 -x {0.0 8.0 3 ------- null}
- -t 0.712977 -s 5 -d 8 -p udp -e 778 -c 1 -i 6 -a 1 -x {0.0 8.0 3 ------- null}
h -t 0.712977 -s 5 -d 8 -p udp -e 778 -c 1 -i 6 -a 1 -x {0.0 8.0 -1 ------- null}
r -t 0.726789 -s 1 -d 3 -p udp -e 622 -c 2 -i 10 -a 2 -x {1.0 9.0 5 ------- null}
+ -t 0.726789 -s 3 -d 4 -p udp -e 622 -c 2 -i 10 -a 2 -x {1.0 9.0 5 ------- null}
r -t 0.733272 -s 0 -d 3 -p udp -e 736 -c 1 -i 9 -a 1 -x {0.0 8.0 4 ------- null}
+ -t 0.733272 -s 3 -d 4 -p udp -e 736 -c 1 -i 9 -a 1 -x {0.0 8.0 4 ------- null}
- -t 0.742352 -s 3 -d 4 -p udp -e 622 -c 2 -i 10 -a 2 -x {1.0 9.0 5 ------- null}
h -t 0.742352 -s 3 -d 4 -p udp -e 622 -c 2 -i 10 -a 2 -x {1.0 9.0 -1 ------- null}
r -t 0.752352 -s 3 -d 4 -p udp -e 634 -c 2 -i 8 -a 2 -x {1.0 9.0 4 ------- null}
+ -t 0.752352 -s 4 -d 5 -p udp -e 634 -c 2 -i 8 -a 2 -x {1.0 9.0 4 ------- null}
r -t 0.762691 -s 6 -d 9 -p udp -e 845 -c 2 -i 4 -a 2 -x {1.0 9.0 2 ------- null}
- -t 0.771102 -s 4 -d 5 -p udp -e 634 -c 2 -i 8 -a 2 -x {1.0 9.0 4 ------- null}
h -t 0.771102 -s 4 -d 5 -p udp -e 634 -c 2 -i 8 -a 2 -x {1.0 9.0 -1 ------- null}
r -t 0.771602 -s 5 -d 8 -p udp -e 778 -c 1 -i 6 -a 1 -x {0.0 8.0 3 ------- null}
+ -t 0.774779 -s 0 -d 3 -p udp -e 835 -c 1 -i 11 -a 1 -x {0.0 8.0 5 ------- null}
- -t 0.774779 -s 0 -d 3 -p udp -e 835 -c 1 -i 11 -a 1 -x {0.0 8.0 5 ------- null}
h -t 0.774779 -s 0 -d 3 -p udp -e 835 -c 1 -i 11 -a 1 -x {0.0 8.0 -1 ------- null}
r -t 0.781102 -s 4 -d 5 -p udp -e 934 -c 2 -i 7 -a 2 -x {1.0 9.0 3 ------- null}
+ -t 0.781102 -s 5 -d 6 -p udp -e 934 -c 2 -i 7 -a 2 -x {1.0 9.0 3 ------- null}
- -t 0.781102 -s 5 -d 6 -p udp -e 934 -c 2 -i 7 -a 2 -x {1.0 9.0 3 ------- null}
h -t 0.781102 -s 5 -d 6 -p udp -e 934 -c 2 -i 7 -a 2 -x {1.0 9.0 -1 ------- null}
- -t 0.781227 -s 3 -d 4 -p udp -e 736 -c 1 -i 9 -a 1 -x {0.0 8.0 4 ------- null}
h -t 0.781227 -s 3 -d 4 -p udp -e 736 -c 1 -i 9 -a 1 -x {0.0 8.0 -1 ------- null}
+ -t 0.791078 -s 1 -d 3 -p udp -e 536 -c 2 -i 12 -a 2 -x {1.0 9.0 6 ------- null}
- -t 0.791078 -s 1 -d 3 -p udp -e 536 -c 2 -i 12 -a 2 -x {1.0 9.0 6 ------- null}
h -t 0.791078 -s 1 -d 3 -p udp -e 536 -c 2 -i 12 -a 2 -x {1.0 9.0 -1 ------- null}
r -t 0.791227 -s 3 -d 4 -p udp -e 622 -c 2 -i 10 -a 2 -x {1.0 9.0 5 ------- null}
+ -t 0.791227 -s 4 -d 5 -p udp -e 622 -c 2 -i 10 -a 2 -x {1.0 9.0 5 ------- null}
- -t 0.810727 -s 4 -d 5 -p udp -e 622 -c 2 -i 10 -a 2 -x {1.0 9.0 5 ------- null}
h -t 0.810727 -s 4 -d 5 -p udp -e 622 -c 2 -i 10 -a 2 -x {1.0 9.0 -1 ------- null}
r -t 0.820727 -s 4 -d 5 -p udp -e 634 -c 2 -i 8 -a 2 -x {1.0 9.0 4 ------- null}
+ -t 0.820727 -s 5 -d 6 -p udp -e 634 -c 2 -i 8 -a 2 -x {1.0 9.0 4 ------- null}
r -t 0.834578 -s 1 -d 3 -p udp -e 536 -c 2 -i 12 -a 2 -x {1.0 9.0 6 ------- null}
+ -t 0.834578 -s 3 -d 4 -p udp -e 536 -c 2 -i 12 -a 2 -x {1.0 9.0 6 ------- null}
- -t 0.834578 -s 3 -d 4 -p udp -e 536 -c 2 -i 12 -a 2 -x {1.0 9.0 6 ------- null}
h -t 0.834578 -s 3 -d 4 -p udp -e 536 -c 2 -i 12 -a 2 -x {1.0 9.0 -1 ------- null}
r -t 0.8369665 -s 0 -d 3 -p udp -e 835 -c 1 -i 11 -a 1 -x {0.0 8.0 5 ------- null}
+ -t 0.8369665 -s 3 -d 4 -p udp -e 835 -c 1 -i 11 -a 1 -x {0.0 8.0 5 ------- null}
r -t 0.837227 -s 3 -d 4 -p udp -e 736 -c 1 -i 9 -a 1 -x {0.0 8.0 4 ------- null}
+ -t 0.837227 -s 4 -d 5 -p udp -e 736 -c 1 -i 9 -a 1 -x {0.0 8.0 4 ------- null}
- -t 0.839477 -s 5 -d 6 -p udp -e 634 -c 2 -i 8 -a 2 -x {1.0 9.0 4 ------- null}
h -t 0.839477 -s 5 -d 6 -p udp -e 634 -c 2 -i 8 -a 2 -x {1.0 9.0 -1 ------- null}
+ -t 0.842266 -s 1 -d 3 -p udp -e 598 -c 2 -i 13 -a 2 -x {1.0 9.0 7 ------- null}
- -t 0.842266 -s 1 -d 3 -p udp -e 598 -c 2 -i 13 -a 2 -x {1.0 9.0 7 ------- null}
h -t 0.842266 -s 1 -d 3 -p udp -e 598 -c 2 -i 13 -a 2 -x {1.0 9.0 -1 ------- null}
r -t 0.849477 -s 5 -d 6 -p udp -e 934 -c 2 -i 7 -a 2 -x {1.0 9.0 3 ------- null}
+ -t 0.849477 -s 6 -d 9 -p udp -e 934 -c 2 -i 7 -a 2 -x {1.0 9.0 3 ------- null}
- -t 0.849477 -s 6 -d 9 -p udp -e 934 -c 2 -i 7 -a 2 -x {1.0 9.0 3 ------- null}
h -t 0.849477 -s 6 -d 9 -p udp -e 934 -c 2 -i 7 -a 2 -x {1.0 9.0 -1 ------- null}
- -t 0.849602 -s 4 -d 5 -p udp -e 736 -c 1 -i 9 -a 1 -x {0.0 8.0 4 ------- null}
h -t 0.849602 -s 4 -d 5 -p udp -e 736 -c 1 -i 9 -a 1 -x {0.0 8.0 -1 ------- null}
r -t 0.859602 -s 4 -d 5 -p udp -e 622 -c 2 -i 10 -a 2 -x {1.0 9.0 5 ------- null}
+ -t 0.859602 -s 5 -d 6 -p udp -e 622 -c 2 -i 10 -a 2 -x {1.0 9.0 5 ------- null}
- -t 0.868078 -s 3 -d 4 -p udp -e 835 -c 1 -i 11 -a 1 -x {0.0 8.0 5 ------- null}
h -t 0.868078 -s 3 -d 4 -p udp -e 835 -c 1 -i 11 -a 1 -x {0.0 8.0 -1 ------- null}
r -t 0.878078 -s 3 -d 4 -p udp -e 536 -c 2 -i 12 -a 2 -x {1.0 9.0 6 ------- null}
+ -t 0.878078 -s 4 -d 5 -p udp -e 536 -c 2 -i 12 -a 2 -x {1.0 9.0 6 ------- null}
- -t 0.879102 -s 5 -d 6 -p udp -e 622 -c 2 -i 10 -a 2 -x {1.0 9.0 5 ------- null}
h -t 0.879102 -s 5 -d 6 -p udp -e 622 -c 2 -i 10 -a 2 -x {1.0 9.0 -1 ------- null}
r -t 0.889102 -s 5 -d 6 -p udp -e 634 -c 2 -i 8 -a 2 -x {1.0 9.0 4 ------- null}
+ -t 0.889102 -s 6 -d 9 -p udp -e 634 -c 2 -i 8 -a 2 -x {1.0 9.0 4 ------- null}
r -t 0.889641 -s 1 -d 3 -p udp -e 598 -c 2 -i 13 -a 2 -x {1.0 9.0 7 ------- null}
+ -t 0.889641 -s 3 -d 4 -p udp -e 598 -c 2 -i 13 -a 2 -x {1.0 9.0 7 ------- null}
- -t 0.895602 -s 4 -d 5 -p udp -e 536 -c 2 -i 12 -a 2 -x {1.0 9.0 6 ------- null}
h -t 0.895602 -s 4 -d 5 -p udp -e 536 -c 2 -i 12 -a 2 -x {1.0 9.0 -1 ------- null}
r -t 0.905602 -s 4 -d 5 -p udp -e 736 -c 1 -i 9 -a 1 -x {0.0 8.0 4 ------- null}
+ -t 0.905602 -s 5 -d 8 -p udp -e 736 -c 1 -i 9 -a 1 -x {0.0 8.0 4 ------- null}
- -t 0.905602 -s 5 -d 8 -p udp -e 736 -c 1 -i 9 -a 1 -x {0.0 8.0 4 ------- null}
h -t 0.905602 -s 5 -d 8 -p udp -e 736 -c 1 -i 9 -a 1 -x {0.0 8.0 -1 ------- null}
- -t 0.907852 -s 6 -d 9 -p udp -e 634 -c 2 -i 8 -a 2 -x {1.0 9.0 4 ------- null}
h -t 0.907852 -s 6 -d 9 -p udp -e 634 -c 2 -i 8 -a 2 -x {1.0 9.0 -1 ------- null}
+ -t 0.91756 -s 1 -d 3 -p udp -e 507 -c 2 -i 14 -a 2 -x {1.0 9.0 8 ------- null}
- -t 0.91756 -s 1 -d 3 -p udp -e 507 -c 2 -i 14 -a 2 -x {1.0 9.0 8 ------- null}
h -t 0.91756 -s 1 -d 3 -p udp -e 507 -c 2 -i 14 -a 2 -x {1.0 9.0 -1 ------- null}
r -t 0.917852 -s 6 -d 9 -p udp -e 934 -c 2 -i 7 -a 2 -x {1.0 9.0 3 ------- null}
- -t 0.9202655 -s 3 -d 4 -p udp -e 598 -c 2 -i 13 -a 2 -x {1.0 9.0 7 ------- null}
h -t 0.9202655 -s 3 -d 4 -p udp -e 598 -c 2 -i 13 -a 2 -x {1.0 9.0 -1 ------- null}
+ -t 0.922738 -s 0 -d 3 -p udp -e 756 -c 1 -i 15 -a 1 -x {0.0 8.0 6 ------- null}
- -t 0.922738 -s 0 -d 3 -p udp -e 756 -c 1 -i 15 -a 1 -x {0.0 8.0 6 ------- null}
h -t 0.922738 -s 0 -d 3 -p udp -e 756 -c 1 -i 15 -a 1 -x {0.0 8.0 -1 ------- null}
r -t 0.927977 -s 5 -d 6 -p udp -e 622 -c 2 -i 10 -a 2 -x {1.0 9.0 5 ------- null}
+ -t 0.927977 -s 6 -d 9 -p udp -e 622 -c 2 -i 10 -a 2 -x {1.0 9.0 5 ------- null}
r -t 0.9302655 -s 3 -d 4 -p udp -e 835 -c 1 -i 11 -a 1 -x {0.0 8.0 5 ------- null}
+ -t 0.9302655 -s 4 -d 5 -p udp -e 835 -c 1 -i 11 -a 1 -x {0.0 8.0 5 ------- null}
- -t 0.9302655 -s 4 -d 5 -p udp -e 835 -c 1 -i 11 -a 1 -x {0.0 8.0 5 ------- null}
h -t 0.9302655 -s 4 -d 5 -p udp -e 835 -c 1 -i 11 -a 1 -x {0.0 8.0 -1 ------- null}
r -t 0.939102 -s 4 -d 5 -p udp -e 536 -c 2 -i 12 -a 2 -x {1.0 9.0 6 ------- null}
+ -t 0.939102 -s 5 -d 6 -p udp -e 536 -c 2 -i 12 -a 2 -x {1.0 9.0 6 ------- null}
- -t 0.939102 -s 5 -d 6 -p udp -e 536 -c 2 -i 12 -a 2 -x {1.0 9.0 6 ------- null}
h -t 0.939102 -s 5 -d 6 -p udp -e 536 -c 2 -i 12 -a 2 -x {1.0 9.0 -1 ------- null}
- -t 0.947477 -s 6 -d 9 -p udp -e 622 -c 2 -i 10 -a 2 -x {1.0 9.0 5 ------- null}
h -t 0.947477 -s 6 -d 9 -p udp -e 622 -c 2 -i 10 -a 2 -x {1.0 9.0 -1 ------- null}
r -t 0.957477 -s 6 -d 9 -p udp -e 634 -c 2 -i 8 -a 2 -x {1.0 9.0 4 ------- null}
r -t 0.9592475 -s 1 -d 3 -p udp -e 507 -c 2 -i 14 -a 2 -x {1.0 9.0 8 ------- null}
+ -t 0.9592475 -s 3 -d 4 -p udp -e 507 -c 2 -i 14 -a 2 -x {1.0 9.0 8 ------- null}
- -t 0.9592475 -s 3 -d 4 -p udp -e 507 -c 2 -i 14 -a 2 -x {1.0 9.0 8 ------- null}
h -t 0.9592475 -s 3 -d 4 -p udp -e 507 -c 2 -i 14 -a 2 -x {1.0 9.0 -1 ------- null}
r -t 0.961602 -s 5 -d 8 -p udp -e 736 -c 1 -i 9 -a 1 -x {0.0 8.0 4 ------- null}
r -t 0.9676405 -s 3 -d 4 -p udp -e 598 -c 2 -i 13 -a 2 -x {1.0 9.0 7 ------- null}
+ -t 0.9676405 -s 4 -d 5 -p udp -e 598 -c 2 -i 13 -a 2 -x {1.0 9.0 7 ------- null}
+ -t 0.973194 -s 1 -d 3 -p udp -e 863 -c 2 -i 16 -a 2 -x {1.0 9.0 9 ------- null}
- -t 0.973194 -s 1 -d 3 -p udp -e 863 -c 2 -i 16 -a 2 -x {1.0 9.0 9 ------- null}
h -t 0.973194 -s 1 -d 3 -p udp -e 863 -c 2 -i 16 -a 2 -x {1.0 9.0 -1 ------- null}
r -t 0.979988 -s 0 -d 3 -p udp -e 756 -c 1 -i 15 -a 1 -x {0.0 8.0 6 ------- null}
+ -t 0.979988 -s 3 -d 4 -p udp -e 756 -c 1 -i 15 -a 1 -x {0.0 8.0 6 ------- null}
- -t 0.982453 -s 4 -d 5 -p udp -e 598 -c 2 -i 13 -a 2 -x {1.0 9.0 7 ------- null}
h -t 0.982453 -s 4 -d 5 -p udp -e 598 -c 2 -i 13 -a 2 -x {1.0 9.0 -1 ------- null}
r -t 0.982602 -s 5 -d 6 -p udp -e 536 -c 2 -i 12 -a 2 -x {1.0 9.0 6 ------- null}
+ -t 0.982602 -s 6 -d 9 -p udp -e 536 -c 2 -i 12 -a 2 -x {1.0 9.0 6 ------- null}
- -t 0.986352 -s 6 -d 9 -p udp -e 536 -c 2 -i 12 -a 2 -x {1.0 9.0 6 ------- null}
h -t 0.986352 -s 6 -d 9 -p udp -e 536 -c 2 -i 12 -a 2 -x {1.0 9.0 -1 ------- null}
- -t 0.990935 -s 3 -d 4 -p udp -e 756 -c 1 -i 15 -a 1 -x {0.0 8.0 6 ------- null}
h -t 0.990935 -s 3 -d 4 -p udp -e 756 -c 1 -i 15 -a 1 -x {0.0 8.0 -1 ------- null}
r -t 0.992453 -s 4 -d 5 -p udp -e 835 -c 1 -i 11 -a 1 -x {0.0 8.0 5 ------- null}
+ -t 0.992453 -s 5 -d 8 -p udp -e 835 -c 1 -i 11 -a 1 -x {0.0 8.0 5 ------- null}
- -t 0.992453 -s 5 -d 8 -p udp -e 835 -c 1 -i 11 -a 1 -x {0.0 8.0 5 ------- null}
h -t 0.992453 -s 5 -d 8 -p udp -e 835 -c 1 -i 11 -a 1 -x {0.0 8.0 -1 ------- null}
r -t 0.996352 -s 6 -d 9 -p udp -e 622 -c 2 -i 10 -a 2 -x {1.0 9.0 5 ------- null}
r -t 1.000935 -s 3 -d 4 -p udp -e 507 -c 2 -i 14 -a 2 -x {1.0 9.0 8 ------- null}
+ -t 1.000935 -s 4 -d 5 -p udp -e 507 -c 2 -i 14 -a 2 -x {1.0 9.0 8 ------- null}
+ -t 1.00731 -s 0 -d 3 -p udp -e 668 -c 1 -i 17 -a 1 -x {0.0 8.0 7 ------- null}
- -t 1.00731 -s 0 -d 3 -p udp -e 668 -c 1 -i 17 -a 1 -x {0.0 8.0 7 ------- null}
h -t 1.00731 -s 0 -d 3 -p udp -e 668 -c 1 -i 17 -a 1 -x {0.0 8.0 -1 ------- null}
- -t 1.019828 -s 4 -d 5 -p udp -e 507 -c 2 -i 14 -a 2 -x {1.0 9.0 8 ------- null}
h -t 1.019828 -s 4 -d 5 -p udp -e 507 -c 2 -i 14 -a 2 -x {1.0 9.0 -1 ------- null}
r -t 1.029828 -s 4 -d 5 -p udp -e 598 -c 2 -i 13 -a 2 -x {1.0 9.0 7 ------- null}
+ -t 1.029828 -s 5 -d 6 -p udp -e 598 -c 2 -i 13 -a 2 -x {1.0 9.0 7 ------- null}
- -t 1.029828 -s 5 -d 6 -p udp -e 598 -c 2 -i 13 -a 2 -x {1.0 9.0 7 ------- null}
h -t 1.029828 -s 5 -d 6 -p udp -e 598 -c 2 -i 13 -a 2 -x {1.0 9.0 -1 ------- null}
r -t 1.029852 -s 6 -d 9 -p udp -e 536 -c 2 -i 12 -a 2 -x {1.0 9.0 6 ------- null}
r -t 1.0371315 -s 1 -d 3 -p udp -e 863 -c 2 -i 16 -a 2 -x {1.0 9.0 9 ------- null}
+ -t 1.0371315 -s 3 -d 4 -p udp -e 863 -c 2 -i 16 -a 2 -x {1.0 9.0 9 ------- null}
- -t 1.038185 -s 3 -d 4 -p udp -e 863 -c 2 -i 16 -a 2 -x {1.0 9.0 9 ------- null}
h -t 1.038185 -s 3 -d 4 -p udp -e 863 -c 2 -i 16 -a 2 -x {1.0 9.0 -1 ------- null}
r -t 1.048185 -s 3 -d 4 -p udp -e 756 -c 1 -i 15 -a 1 -x {0.0 8.0 6 ------- null}
+ -t 1.048185 -s 4 -d 5 -p udp -e 756 -c 1 -i 15 -a 1 -x {0.0 8.0 6 ------- null}
- -t 1.0515155 -s 4 -d 5 -p udp -e 756 -c 1 -i 15 -a 1 -x {0.0 8.0 6 ------- null}
h -t 1.0515155 -s 4 -d 5 -p udp -e 756 -c 1 -i 15 -a 1 -x {0.0 8.0 -1 ------- null}
r -t 1.0546405 -s 5 -d 8 -p udp -e 835 -c 1 -i 11 -a 1 -x {0.0 8.0 5 ------- null}
r -t 1.05906 -s 0 -d 3 -p udp -e 668 -c 1 -i 17 -a 1 -x {0.0 8.0 7 ------- null}
+ -t 1.05906 -s 3 -d 4 -p udp -e 668 -c 1 -i 17 -a 1 -x {0.0 8.0 7 ------- null}
r -t 1.0615155 -s 4 -d 5 -p udp -e 507 -c 2 -i 14 -a 2 -x {1.0 9.0 8 ------- null}
+ -t 1.0615155 -s 5 -d 6 -p udp -e 507 -c 2 -i 14 -a 2 -x {1.0 9.0 8 ------- null}
+ -t 1.064666 -s 0 -d 3 -p udp -e 908 -c 1 -i 18 -a 1 -x {0.0 8.0 8 ------- null}
- -t 1.064666 -s 0 -d 3 -p udp -e 908 -c 1 -i 18 -a 1 -x {0.0 8.0 8 ------- null}
h -t 1.064666 -s 0 -d 3 -p udp -e 908 -c 1 -i 18 -a 1 -x {0.0 8.0 -1 ------- null}
- -t 1.067203 -s 5 -d 6 -p udp -e 507 -c 2 -i 14 -a 2 -x {1.0 9.0 8 ------- null}
h -t 1.067203 -s 5 -d 6 -p udp -e 507 -c 2 -i 14 -a 2 -x {1.0 9.0 -1 ------- null}
r -t 1.077203 -s 5 -d 6 -p udp -e 598 -c 2 -i 13 -a 2 -x {1.0 9.0 7 ------- null}
+ -t 1.077203 -s 6 -d 9 -p udp -e 598 -c 2 -i 13 -a 2 -x {1.0 9.0 7 ------- null}
- -t 1.077203 -s 6 -d 9 -p udp -e 598 -c 2 -i 13 -a 2 -x {1.0 9.0 7 ------- null}
h -t 1.077203 -s 6 -d 9 -p udp -e 598 -c 2 -i 13 -a 2 -x {1.0 9.0 -1 ------- null}
- -t 1.0921225 -s 3 -d 4 -p udp -e 668 -c 1 -i 17 -a 1 -x {0.0 8.0 7 ------- null}
h -t 1.0921225 -s 3 -d 4 -p udp -e 668 -c 1 -i 17 -a 1 -x {0.0 8.0 -1 ------- null}
r -t 1.1021225 -s 3 -d 4 -p udp -e 863 -c 2 -i 16 -a 2 -x {1.0 9.0 9 ------- null}
+ -t 1.1021225 -s 4 -d 5 -p udp -e 863 -c 2 -i 16 -a 2 -x {1.0 9.0 9 ------- null}
- -t 1.1021225 -s 4 -d 5 -p udp -e 863 -c 2 -i 16 -a 2 -x {1.0 9.0 9 ------- null}
h -t 1.1021225 -s 4 -d 5 -p udp -e 863 -c 2 -i 16 -a 2 -x {1.0 9.0 -1 ------- null}
+ -t 1.106925 -s 1 -d 3 -p udp -e 851 -c 2 -i 19 -a 2 -x {1.0 9.0 10 ------- null}
- -t 1.106925 -s 1 -d 3 -p udp -e 851 -c 2 -i 19 -a 2 -x {1.0 9.0 10 ------- null}
h -t 1.106925 -s 1 -d 3 -p udp -e 851 -c 2 -i 19 -a 2 -x {1.0 9.0 -1 ------- null}
r -t 1.1087655 -s 4 -d 5 -p udp -e 756 -c 1 -i 15 -a 1 -x {0.0 8.0 6 ------- null}
+ -t 1.1087655 -s 5 -d 8 -p udp -e 756 -c 1 -i 15 -a 1 -x {0.0 8.0 6 ------- null}
- -t 1.1087655 -s 5 -d 8 -p udp -e 756 -c 1 -i 15 -a 1 -x {0.0 8.0 6 ------- null}
h -t 1.1087655 -s 5 -d 8 -p udp -e 756 -c 1 -i 15 -a 1 -x {0.0 8.0 -1 ------- null}
r -t 1.1088905 -s 5 -d 6 -p udp -e 507 -c 2 -i 14 -a 2 -x {1.0 9.0 8 ------- null}
+ -t 1.1088905 -s 6 -d 9 -p udp -e 507 -c 2 -i 14 -a 2 -x {1.0 9.0 8 ------- null}
- -t 1.114578 -s 6 -d 9 -p udp -e 507 -c 2 -i 14 -a 2 -x {1.0 9.0 8 ------- null}
h -t 1.114578 -s 6 -d 9 -p udp -e 507 -c 2 -i 14 -a 2 -x {1.0 9.0 -1 ------- null}
r -t 1.124578 -s 6 -d 9 -p udp -e 598 -c 2 -i 13 -a 2 -x {1.0 9.0 7 ------- null}
r -t 1.131416 -s 0 -d 3 -p udp -e 908 -c 1 -i 18 -a 1 -x {0.0 8.0 8 ------- null}
+ -t 1.131416 -s 3 -d 4 -p udp -e 908 -c 1 -i 18 -a 1 -x {0.0 8.0 8 ------- null}
- -t 1.1338725 -s 3 -d 4 -p udp -e 908 -c 1 -i 18 -a 1 -x {0.0 8.0 8 ------- null}
h -t 1.1338725 -s 3 -d 4 -p udp -e 908 -c 1 -i 18 -a 1 -x {0.0 8.0 -1 ------- null}
r -t 1.1438725 -s 3 -d 4 -p udp -e 668 -c 1 -i 17 -a 1 -x {0.0 8.0 7 ------- null}
+ -t 1.1438725 -s 4 -d 5 -p udp -e 668 -c 1 -i 17 -a 1 -x {0.0 8.0 7 ------- null}
+ -t 1.151151 -s 0 -d 3 -p udp -e 653 -c 1 -i 20 -a 1 -x {0.0 8.0 9 ------- null}
- -t 1.151151 -s 0 -d 3 -p udp -e 653 -c 1 -i 20 -a 1 -x {0.0 8.0 9 ------- null}
h -t 1.151151 -s 0 -d 3 -p udp -e 653 -c 1 -i 20 -a 1 -x {0.0 8.0 -1 ------- null}
- -t 1.15606 -s 4 -d 5 -p udp -e 668 -c 1 -i 17 -a 1 -x {0.0 8.0 7 ------- null}
h -t 1.15606 -s 4 -d 5 -p udp -e 668 -c 1 -i 17 -a 1 -x {0.0 8.0 -1 ------- null}
r -t 1.1562655 -s 6 -d 9 -p udp -e 507 -c 2 -i 14 -a 2 -x {1.0 9.0 8 ------- null}
r -t 1.1660155 -s 5 -d 8 -p udp -e 756 -c 1 -i 15 -a 1 -x {0.0 8.0 6 ------- null}
r -t 1.16606 -s 4 -d 5 -p udp -e 863 -c 2 -i 16 -a 2 -x {1.0 9.0 9 ------- null}
+ -t 1.16606 -s 5 -d 6 -p udp -e 863 -c 2 -i 16 -a 2 -x {1.0 9.0 9 ------- null}
- -t 1.16606 -s 5 -d 6 -p udp -e 863 -c 2 -i 16 -a 2 -x {1.0 9.0 9 ------- null}
h -t 1.16606 -s 5 -d 6 -p udp -e 863 -c 2 -i 16 -a 2 -x {1.0 9.0 -1 ------- null}
r -t 1.1701125 -s 1 -d 3 -p udp -e 851 -c 2 -i 19 -a 2 -x {1.0 9.0 10 ------- null}
+ -t 1.1701125 -s 3 -d 4 -p udp -e 851 -c 2 -i 19 -a 2 -x {1.0 9.0 10 ------- null}
- -t 1.1906225 -s 3 -d 4 -p udp -e 851 -c 2 -i 19 -a 2 -x {1.0 9.0 10 ------- null}
h -t 1.1906225 -s 3 -d 4 -p udp -e 851 -c 2 -i 19 -a 2 -x {1.0 9.0 -1 ------- null}
r -t 1.2006225 -s 3 -d 4 -p udp -e 908 -c 1 -i 18 -a 1 -x {0.0 8.0 8 ------- null}
+ -t 1.2006225 -s 4 -d 5 -p udp -e 908 -c 1 -i 18 -a 1 -x {0.0 8.0 8 ------- null}
- -t 1.2006225 -s 4 -d 5 -p udp -e 908 -c 1 -i 18 -a 1 -x {0.0 8.0 8 ------- null}
h -t 1.2006225 -s 4 -d 5 -p udp -e 908 -c 1 -i 18 -a 1 -x {0.0 8.0 -1 ------- null}
r -t 1.2019635 -s 0 -d 3 -p udp -e 653 -c 1 -i 20 -a 1 -x {0.0 8.0 9 ------- null}
+ -t 1.2019635 -s 3 -d 4 -p udp -e 653 -c 1 -i 20 -a 1 -x {0.0 8.0 9 ------- null}
r -t 1.20781 -s 4 -d 5 -p udp -e 668 -c 1 -i 17 -a 1 -x {0.0 8.0 7 ------- null}
+ -t 1.20781 -s 5 -d 8 -p udp -e 668 -c 1 -i 17 -a 1 -x {0.0 8.0 7 ------- null}
- -t 1.20781 -s 5 -d 8 -p udp -e 668 -c 1 -i 17 -a 1 -x {0.0 8.0 7 ------- null}
h -t 1.20781 -s 5 -d 8 -p udp -e 668 -c 1 -i 17 -a 1 -x {0.0 8.0 -1 ------- null}
r -t 1.2299975 -s 5 -d 6 -p udp -e 863 -c 2 -i 16 -a 2 -x {1.0 9.0 9 ------- null}
+ -t 1.2299975 -s 6 -d 9 -p udp -e 863 -c 2 -i 16 -a 2 -x {1.0 9.0 9 ------- null}
- -t 1.2299975 -s 6 -d 9 -p udp -e 863 -c 2 -i 16 -a 2 -x {1.0 9.0 9 ------- null}
h -t 1.2299975 -s 6 -d 9 -p udp -e 863 -c 2 -i 16 -a 2 -x {1.0 9.0 -1 ------- null}